17
Lattice="7.0 0.0 0.0 3.5 6.06217782649107 0.0 0.0 0.0 15.0" Properties=species:S:1:pos:R:3:initial_charges:R:1:forces:R:3 energy=-1245.235899056351 pbc="T T F"
N        1.74659952       0.93675402       3.81463217      -0.15000000       0.02977016      -0.00100108      -0.01829476
N        2.89854136      -1.05258227       3.46312176      -0.50000000      -0.00356025      -0.03284434      -0.00008746
N        4.09024289       0.99249801       3.55230305      -0.66000000       0.03930967      -0.00331361      -0.01654768
N        0.54575220      -1.00098826       3.37516102      -0.66000000      -0.02393414      -0.00017212      -0.01576138
N       -0.48716060       0.77002688       4.55865858      -0.66000000      -0.01101978       0.03998928       0.02557293
N        2.90559119       2.93757325       3.89440859      -0.66000000      -0.01845425       0.00770794       0.01350964
N        0.58739898       2.88424211       4.41451852      -0.66000000       0.02894839       0.02332144      -0.00989010
N       -1.78191465      -1.09007940       3.82401218      -0.85000000      -0.02026229      -0.01992601       0.00566541
C        1.74823481      -0.40826136       3.54415924       0.55000000       0.00184484      -0.03118663      -0.00683767
C        2.94166404       1.62963329       3.77746454       0.71000000       0.00867311      -0.00216294       0.01689194
C        0.61079011       1.56686321       4.32791499       0.71000000       0.01583846       0.00528729      -0.00384306
C        4.04606540      -0.38012741       3.64201196       0.55000000      -0.00887670      -0.01705768       0.01409540
C       -0.51616289      -0.39496216       3.92506765       0.71000000      -0.01578149       0.02360720       0.01270005
C        1.69326544       3.56404998       4.01361526       0.87000000      -0.00273082      -0.00223006       0.00671670
Pt       4.99125242       2.83288192       4.81820281       0.00000000      -0.04596479       0.01205753       0.02432590
O        5.27675111       4.03998167       6.49712303       0.00000000       0.00429402      -0.00792754      -0.03993695
H        6.22469382       4.16783626       6.39435098       0.00000000       0.02190584       0.00585131      -0.00827892
