15
Lattice="7.0 0.0 0.0 3.5 6.06217782649107 0.0 0.0 0.0 15.0" Properties=species:S:1:pos:R:3:initial_charges:R:1:forces:R:3 energy=-1120.124974395599 pbc="T T F"
N        1.79363992       1.00930829       4.11338502      -0.15000000       0.04218315       0.03049704       0.00935544
N        2.91160843      -1.01699721       3.83462601      -0.50000000      -0.00851976       0.01848414       0.00385115
N        4.04812143       1.03458368       3.50932652      -0.66000000       0.00239867      -0.01895785      -0.01016997
N        0.63995457      -1.01546798       4.26291360      -0.66000000      -0.04770229      -0.00160637       0.01706326
N       -0.50987539       1.05016657       4.50773729      -0.66000000      -0.00477418       0.01121273       0.00120319
N        2.75594543       3.02763252       3.37077007      -0.66000000      -0.03687769      -0.03189980       0.02225069
N        0.80792924       3.04472802       4.71109934      -0.66000000       0.00859213       0.00107255      -0.01926044
N       -1.71664799      -0.95622546       4.04918355      -0.85000000      -0.03232340       0.02684575       0.01057794
C        1.78032013      -0.38211259       4.06312808       0.55000000      -0.00494752      -0.01901715       0.00090941
C        2.89545833       1.67998007       3.63436262       0.71000000      -0.01257079       0.03336531      -0.02950520
C        0.65682406       1.69759836       4.46932083       0.71000000      -0.00198903      -0.01535695      -0.00493629
C        4.08306591      -0.28356472       3.80888364       0.55000000       0.02018475      -0.01369540       0.03108895
C       -0.52163450      -0.27037091       4.25932218       0.71000000       0.05912330       0.00026337       0.01336098
C        1.78640117       3.64879719       4.04101307       0.87000000       0.00328547      -0.00101662      -0.03603718
Pt       5.36704029       3.01178500       3.36812816       0.00000000       0.01393720      -0.02019075      -0.00975192
