132
Lattice="8.931897795410588 0.0 0.0 0.0 10.313667193109055 0.0 0.0 0.0 29.56541672160619" Properties=species:S:1:pos:R:3:tags:I:1:initial_magmoms:R:1:momenta:R:3:forces:R:3 energy=-8967.562562473619 pbc="T T T"
Au       1.48864963       0.85947227       6.00000000        1       0.00000000       0.00000000       0.00000000       0.00000000       0.00000000       0.00000000       0.00000000
Au       4.46594890       0.85947227       6.00000000        1       0.00000000       0.00000000       0.00000000       0.00000000       0.00000000       0.00000000       0.00000000
Au       7.44324816       0.85947227       6.00000000        1       0.00000000       0.00000000       0.00000000       0.00000000       0.00000000       0.00000000       0.00000000
Au       0.00000000       3.43788906       6.00000000        1       0.00000000       0.00000000       0.00000000       0.00000000       0.00000000       0.00000000       0.00000000
Au       2.97729927       3.43788906       6.00000000        1       0.00000000       0.00000000       0.00000000       0.00000000       0.00000000       0.00000000       0.00000000
Au       5.95459853       3.43788906       6.00000000        1       0.00000000       0.00000000       0.00000000       0.00000000       0.00000000       0.00000000       0.00000000
Au       1.48864963       6.01630586       6.00000000        1       0.00000000       0.00000000       0.00000000       0.00000000       0.00000000       0.00000000       0.00000000
Au       4.46594890       6.01630586       6.00000000        1       0.00000000       0.00000000       0.00000000       0.00000000       0.00000000       0.00000000       0.00000000
Au       7.44324816       6.01630586       6.00000000        1       0.00000000       0.00000000       0.00000000       0.00000000       0.00000000       0.00000000       0.00000000
Au       0.00000000       8.59472266       6.00000000        1       0.00000000       0.00000000       0.00000000       0.00000000       0.00000000       0.00000000       0.00000000
Au       2.97729927       8.59472266       6.00000000        1       0.00000000       0.00000000       0.00000000       0.00000000       0.00000000       0.00000000       0.00000000
Au       5.95459853       8.59472266       6.00000000        1       0.00000000       0.00000000       0.00000000       0.00000000       0.00000000       0.00000000       0.00000000
Au       0.00000000       1.71894453       8.43095467        1       0.00000000       0.00000000       0.00000000       0.00000000       0.00000000       0.00000000       0.00000000
Au       2.97729927       1.71894453       8.43095467        1       0.00000000       0.00000000       0.00000000       0.00000000       0.00000000       0.00000000       0.00000000
Au       5.95459853       1.71894453       8.43095467        1       0.00000000       0.00000000       0.00000000       0.00000000       0.00000000       0.00000000       0.00000000
Au       1.48864963       4.29736133       8.43095467        1       0.00000000       0.00000000       0.00000000       0.00000000       0.00000000       0.00000000       0.00000000
Au       4.46594890       4.29736133       8.43095467        1       0.00000000       0.00000000       0.00000000       0.00000000       0.00000000       0.00000000       0.00000000
Au       7.44324816       4.29736133       8.43095467        1       0.00000000       0.00000000       0.00000000       0.00000000       0.00000000       0.00000000       0.00000000
Au       0.00000000       6.87577813       8.43095467        1       0.00000000       0.00000000       0.00000000       0.00000000       0.00000000       0.00000000       0.00000000
Au       2.97729927       6.87577813       8.43095467        1       0.00000000       0.00000000       0.00000000       0.00000000       0.00000000       0.00000000       0.00000000
Au       5.95459853       6.87577813       8.43095467        1       0.00000000       0.00000000       0.00000000       0.00000000       0.00000000       0.00000000       0.00000000
Au       1.48864963       9.45419493       8.43095467        1       0.00000000       0.00000000       0.00000000       0.00000000       0.00000000       0.00000000       0.00000000
Au       4.46594890       9.45419493       8.43095467        1       0.00000000       0.00000000       0.00000000       0.00000000       0.00000000       0.00000000       0.00000000
Au       7.44324816       9.45419493       8.43095467        1       0.00000000       0.00000000       0.00000000       0.00000000       0.00000000       0.00000000       0.00000000
Au       0.00000000       0.00000000      10.86190934        1       0.00000000       0.00000000       0.00000000       0.00000000       0.00000000       0.00000000       0.00000000
Au       2.97729927       0.00000000      10.86190934        1       0.00000000       0.00000000       0.00000000       0.00000000       0.00000000       0.00000000       0.00000000
Au       5.95459853       0.00000000      10.86190934        1       0.00000000       0.00000000       0.00000000       0.00000000       0.00000000       0.00000000       0.00000000
Au       1.48864963       2.57841680      10.86190934        1       0.00000000       0.00000000       0.00000000       0.00000000       0.00000000       0.00000000       0.00000000
Au       4.46594890       2.57841680      10.86190934        1       0.00000000       0.00000000       0.00000000       0.00000000       0.00000000       0.00000000       0.00000000
Au       7.44324816       2.57841680      10.86190934        1       0.00000000       0.00000000       0.00000000       0.00000000       0.00000000       0.00000000       0.00000000
Au       0.00000000       5.15683360      10.86190934        1       0.00000000       0.00000000       0.00000000       0.00000000       0.00000000       0.00000000       0.00000000
Au       2.97729927       5.15683360      10.86190934        1       0.00000000       0.00000000       0.00000000       0.00000000       0.00000000       0.00000000       0.00000000
Au       5.95459853       5.15683360      10.86190934        1       0.00000000       0.00000000       0.00000000       0.00000000       0.00000000       0.00000000       0.00000000
Au       1.48864963       7.73525039      10.86190934        1       0.00000000       0.00000000       0.00000000       0.00000000       0.00000000       0.00000000       0.00000000
Au       4.46594890       7.73525039      10.86190934        1       0.00000000       0.00000000       0.00000000       0.00000000       0.00000000       0.00000000       0.00000000
Au       7.44324816       7.73525039      10.86190934        1       0.00000000       0.00000000       0.00000000       0.00000000       0.00000000       0.00000000       0.00000000
O        8.43267187       4.15601941      18.11015677        0       0.00000000       0.48957334      -0.58744125      -0.01744003      -0.36569968      -0.16776266      -0.20760078
H        0.00843722       3.45843532      17.67605864        0       0.00000000      -0.02278814      -0.05392523       0.08756503       0.07326397      -0.29753752      -0.12314628
H        0.13018423       4.86277848      18.21593858        0       0.00000000      -0.24593438       0.07302688       0.12436728       0.48216949       0.51829711       0.18591727
O        4.69916406       3.27235800      18.95549969        0       0.00000000      -0.05790498       0.37128442       0.00770503       0.33175760      -0.46021460      -1.10315554
H        4.49545818       3.05265441      18.00743240        0       0.00000000       0.01569523      -0.08910658      -0.01552068       0.26390276       0.25281274       1.02666114
H        5.62013463       2.92457730      19.06275591        0       0.00000000       0.06910975       0.03423919      -0.08584712      -0.51308317       0.20692569       0.09112266
O        8.43240114       7.20219573      19.78237242        0       0.00000000       0.24715542      -0.18480157       0.04760965       1.03109256      -0.63348019       0.13738357
H        8.78966769       7.57968178      20.60009996        0       0.00000000       0.06646442      -0.10007839       0.26563521      -0.46722165       0.25435944      -0.16537921
H        7.64605522       7.62976782      19.43769998        0       0.00000000       0.07824997       0.15587602      -0.10082459      -0.31193846       0.39965353       0.17294787
O        8.21727498      -0.58688754      17.09506840        0       0.00000000       0.12901827      -0.46735014       0.07277166       0.09039850      -0.03876663      -0.16974237
H        7.60688911       9.62636707      16.34977984        0       0.00000000      -0.05788696      -0.08636410       0.15891931       0.24418321       0.09233314      -0.07326131
H        7.64721227      -0.69194857      17.85778669        0       0.00000000       0.09121811      -0.14735586      -0.05270373      -0.12068860      -0.02805757       0.30265952
O        2.03313848       8.66857681      17.43909553        0       0.00000000       0.86902785       0.36739027       1.11012149      -0.29073832       1.42288814      -0.50432941
H        1.87188473       7.82965105      17.86215987        0       0.00000000       0.02583902      -0.01404379       0.06001617      -0.07859107      -1.00564221       0.49933782
H        1.15933898       9.10411670      17.37340482        0       0.00000000      -0.01049985      -0.08791493       0.05401462       0.29618268      -0.20263027      -0.01487757
O        1.10167730       1.87534260      17.24739466        0       0.00000000      -0.40149521      -0.89158903       0.04018972      -0.17689508      -0.19258369      -0.08892584
H        1.70957830       1.78206505      17.98515863        0       0.00000000      -0.07327627      -0.22184993       0.04720744       0.32292532       0.04233184       0.37417305
H        0.58158474       1.05556637      17.30153946        0       0.00000000       0.14682868       0.08125560       0.04900470      -0.09350260       0.22221130      -0.24432709
O        2.86103780       1.25546095      19.71265026        0       0.00000000      -0.05260603       0.47366548      -0.29500016       0.66829590       0.17066887      -0.49538326
H        3.59848026       0.88124952      19.17348115        0       0.00000000      -0.02704489      -0.19607658      -0.06456019      -0.50705822       0.24303098       0.26406162
H        3.24356254       2.08660694      20.05215031        0       0.00000000      -0.17810970       0.12384414      -0.05017192      -0.20661629      -0.26916095      -0.12201964
O        1.67735778       6.17143347      18.38729347        0       0.00000000       0.51197395      -0.28608678       0.18639059      -0.31146183      -0.04899916       0.77845362
H        2.42415023       5.98826645      19.00895107        0       0.00000000       0.01753294      -0.00452433       0.15164769      -0.51025028       0.22121858      -0.44951414
H        9.83553476       6.46369456      18.94371507        0       0.00000000      -0.09044360      -0.03126759      -0.00744789       0.65834372      -0.16496323      -0.29279261
O        4.24941579       6.02086474      19.75240059        0       0.00000000      -0.11797750      -0.17743507      -0.29625822      -0.15187225       0.07473937       0.71030964
H        4.24020288       6.00846438      20.73946785        0       0.00000000       0.04816414      -0.01470390       0.04045108       0.06246519      -0.18714036      -1.12055508
H        4.42891636       5.10957214      19.45077410        0       0.00000000      -0.13415541       0.04480635       0.17739936       0.08522520       0.06792822       0.21620682
O        2.95563157       5.02819282      13.44276179        0       0.00000000       0.03080272      -0.58723815      -0.05876867       0.18084917       0.26952313      -0.17117022
H        2.36881932       5.61097547      13.93871469        0       0.00000000       0.09264754      -0.24718103      -0.06557730      -0.13896125       0.06245872       0.05158084
H        2.67407523       4.14386789      13.68943541        0       0.00000000       0.04251518       0.03468983      -0.13302752       0.04279999      -0.39056652       0.18809309
O        6.33837231       7.47572872      15.87668773        0       0.00000000       0.31760487       0.84302904       0.88509746      -0.24152871       0.00290287      -0.19011532
H        6.38226003       6.62077422      15.41791256        0       0.00000000       0.08716540       0.17654160       0.00845121       0.27528463      -0.01751750       0.15996766
H        5.44081053       7.77606221      15.65810838        0       0.00000000       0.17060165       0.15870825      -0.07306662      -0.09585065       0.12926393      -0.01918858
O        5.27663803       2.87023734      16.05109019        0       0.00000000      -0.40709639       0.11747935      -0.06775054      -0.17711578      -0.82219874       0.16603790
H        5.78037827       3.68585109      16.05406418        0       0.00000000      -0.09251499       0.01234383      -0.13471376       0.38817549       0.10520113      -0.04797438
H        5.88965503       2.10736298      16.09200968        0       0.00000000      -0.11018715       0.10210155       0.07363536      -0.31263220       0.56190728      -0.01456430
O        7.33809020       4.83671658      15.57675145        0       0.00000000       0.89281170       0.02799798       0.47474054       0.08016447       0.21071188       0.28418844
H        8.18041888       4.97201135      15.11307275        0       0.00000000      -0.15931556       0.20257971      -0.15392210      -0.14591452      -0.01016939       0.25302378
H        7.52553864       4.96212155      16.53134592        0       0.00000000       0.00487615      -0.07161826      -0.05799844       0.11192944      -0.21288645      -0.48509270
O        6.98372889       2.55349087      13.69785439        0       0.00000000       0.77228065       0.25034529       0.53115477       0.87797022       0.35662637      -0.76534039
H        6.64667098       3.29209975      14.20025698        0       0.00000000       0.23565837       0.09768691      -0.09793997      -0.07380409       0.37741620       0.17421990
H        6.46182968       1.80606036      13.94038595        0       0.00000000       0.06976374       0.07061625      -0.04310904      -0.52523805      -0.76417320       0.30152484
O        7.27896150       2.23561818      19.69764094        0       0.00000000       0.22246659       0.08855135      -0.27541704       0.22373166       0.42462958       1.12308072
H        7.17260026       2.34744137      20.67502389        0       0.00000000      -0.07443756       0.08218195       0.01795410      -0.04347683      -0.06695354      -0.84678823
H        7.92455427       2.94481610      19.48002177        0       0.00000000      -0.07192089      -0.10389043      -0.00282846      -0.45034989      -0.41995915      -0.14790078
O        2.73512032       2.50417178      14.73849716        0       0.00000000      -0.40521482      -0.15446971      -0.27288067       0.16057763      -0.10424230       1.60065477
H        3.60589988       2.55346166      15.20255864        0       0.00000000      -0.08993630      -0.16147528       0.03252289      -0.13423607       0.07718007      -0.76293438
H        2.19581569       2.51335733      15.56422782        0       0.00000000       0.07878533       0.17694218      -0.01790665      -0.18985940      -0.12091638      -0.76765481
O        3.77331378      10.38755094      13.61447022        0       0.00000000      -0.55427992       0.12048953      -0.45746361      -0.30559088      -0.23051787      -0.14221652
H        3.21243999      11.04894898      14.03768366        0       0.00000000      -0.12598502      -0.08857697       0.00605666      -0.01126554       0.39642360      -0.02031542
H        3.46279483       9.55999207      14.02796576        0       0.00000000      -0.04005482      -0.09282096       0.01450755       0.28484228      -0.00992913      -0.11186573
O        0.43157530      11.01117871      13.67300967        0       0.00000000      -0.02517228       0.31522620      -0.23042910      -0.31888377      -0.33717610      -0.31856646
H        1.19520402       1.27102979      13.65402984        0       0.00000000       0.13634960      -0.04745297       0.12118350       0.37674637       0.20653353       0.11905297
H        8.61016578       1.30108258      13.63045809        0       0.00000000       0.03469468       0.01670172      -0.02849959      -0.14741918       0.02418162       0.20264085
O        8.35408246       8.07687103      13.80581667        0       0.00000000      -0.32822251       0.10018350       0.68596598       1.13137600       1.17046247      -0.23082907
H        7.65867486       8.34251152      14.41421460        0       0.00000000       0.02100140      -0.07724430       0.06316774      -0.38226627       0.02004217       0.13118801
H        8.92968504       8.89163440      13.74594111        0       0.00000000      -0.04393707      -0.04534404       0.28090386      -0.83352385      -0.94282734       0.01200928
O        3.59803708       8.21426706      15.29309817        0       0.00000000       0.28139160       0.41692404       0.95847355      -0.47477185      -0.29684199       0.16891251
H        3.05562475       8.52389767      16.05947311        0       0.00000000       0.12685928       0.00733395      -0.02852236       0.28057016      -0.15667824      -0.32572382
H        3.09090253       7.44871714      14.97108970        0       0.00000000      -0.04474061       0.00212904      -0.12317971       0.24376722       0.21646520       0.05328368
O        6.14635687       0.13638719      15.00918053        0       0.00000000      -0.15364021       0.07621082      -0.83850308      -0.69770296      -0.29061667       0.20955529
H        5.41435768      10.55470457      14.35236451        0       0.00000000      -0.13128251      -0.02015303      -0.08224147       0.39159549      -0.19564784       0.26587080
H        5.69930782       9.93359778      15.70852388        0       0.00000000       0.11023252      -0.13427759       0.05047349       0.18747977       0.38806641      -0.24808937
O        1.10919442       6.28922202      15.15739858        0       0.00000000       0.09005449       0.11143034       0.30302004       0.06660173       0.08878474       0.18562442
H        9.48099901       6.95001797      14.70854987        0       0.00000000      -0.10769098       0.01326896       0.03789046      -0.10229241       0.00598489      -0.02862142
H        1.23127856       6.59760746      16.06429672        0       0.00000000       0.01773485      -0.14233810       0.04332157      -0.05937031      -0.08309151      -0.02990448
O        4.49585577      10.27455403      17.72526282        0       0.00000000       0.77424722       0.33615839       0.06437782      -1.31232361      -0.98269968      -0.04466082
H        4.99592858       9.65038370      18.26851414        0       0.00000000       0.12778992      -0.02179584      -0.04649693       0.58176495       0.10324129       0.07363438
H        3.67303533       9.71636523      17.62327520        0       0.00000000      -0.05980349      -0.04527709      -0.01718221       0.71145035       0.94219461      -0.12865139
O        6.12892374       8.16263074      18.52950200        0       0.00000000      -0.39926499       0.13842180      -0.87585871       0.74481769       0.69549442      -0.46383805
H        6.25310604       7.78785469      17.63283958        0       0.00000000       0.00102046       0.01915414      -0.05465192      -0.10895476      -0.04531221       0.19872783
H        5.47738888       7.64456167      18.97806108        0       0.00000000       0.12371135      -0.13577596      -0.04115696      -0.72250619      -0.81719885       0.42815779
O        6.83195406       3.36533151      22.41393533        1       0.00000000       0.00000000       0.00000000       0.00000000       0.00000000       0.00000000       0.00000000
H        7.43838938       3.89727211      22.30516355        1       0.00000000       0.00000000       0.00000000       0.00000000       0.00000000       0.00000000       0.00000000
H        6.28132793       4.00498045      22.32527048        1       0.00000000       0.00000000       0.00000000       0.00000000       0.00000000       0.00000000       0.00000000
O        4.80403253       5.36951570      22.59967018        1       0.00000000       0.00000000       0.00000000       0.00000000       0.00000000       0.00000000       0.00000000
H        4.81658866       6.33837720      22.44497864        1       0.00000000       0.00000000       0.00000000       0.00000000       0.00000000       0.00000000       0.00000000
H        4.74317102       5.30430642      23.56541672        1       0.00000000       0.00000000       0.00000000       0.00000000       0.00000000       0.00000000       0.00000000
O        4.80883901       8.53664021      22.40774509        1       0.00000000       0.00000000       0.00000000       0.00000000       0.00000000       0.00000000       0.00000000
H        5.38241516       9.13823230      22.50540071        1       0.00000000       0.00000000       0.00000000       0.00000000       0.00000000       0.00000000       0.00000000
H        4.22325593       9.10803676      22.52564471        1       0.00000000       0.00000000       0.00000000       0.00000000       0.00000000       0.00000000       0.00000000
O        6.82951301       0.17333830      22.24631282        1       0.00000000       0.00000000       0.00000000       0.00000000       0.00000000       0.00000000       0.00000000
H        6.79891645       1.14169504      22.38336239        1       0.00000000       0.00000000       0.00000000       0.00000000       0.00000000       0.00000000       0.00000000
H        6.90780433       0.08839027      21.28445066        1       0.00000000       0.00000000       0.00000000       0.00000000       0.00000000       0.00000000       0.00000000
O        2.55867541       3.38793216      22.41133784        1       0.00000000       0.00000000       0.00000000       0.00000000       0.00000000       0.00000000       0.00000000
H        3.14943966       3.94986342      22.29573202        1       0.00000000       0.00000000       0.00000000       0.00000000       0.00000000       0.00000000       0.00000000
H        1.99244392       4.00287040      22.32373361        1       0.00000000       0.00000000       0.00000000       0.00000000       0.00000000       0.00000000       0.00000000
O        0.52913424       5.35478203      22.59648799        1       0.00000000       0.00000000       0.00000000       0.00000000       0.00000000       0.00000000       0.00000000
H        0.54780351       6.32156887      22.44425345        1       0.00000000       0.00000000       0.00000000       0.00000000       0.00000000       0.00000000       0.00000000
H        0.48027382       5.28687236      23.56299637        1       0.00000000       0.00000000       0.00000000       0.00000000       0.00000000       0.00000000       0.00000000
O        0.53792233       8.54048989      22.40648483        1       0.00000000       0.00000000       0.00000000       0.00000000       0.00000000       0.00000000       0.00000000
H        1.09401523       9.17009081      22.49860544        1       0.00000000       0.00000000       0.00000000       0.00000000       0.00000000       0.00000000       0.00000000
H        8.87057717       9.08340410      22.52608046        1       0.00000000       0.00000000       0.00000000       0.00000000       0.00000000       0.00000000       0.00000000
O        2.56084549       0.21638996      22.22825975        1       0.00000000       0.00000000       0.00000000       0.00000000       0.00000000       0.00000000       0.00000000
H        2.56109948       1.18560925      22.38352487        1       0.00000000       0.00000000       0.00000000       0.00000000       0.00000000       0.00000000       0.00000000
H        2.61271628       0.15095427      21.26182261        1       0.00000000       0.00000000       0.00000000       0.00000000       0.00000000       0.00000000       0.00000000
