      96
 i =        0, time =        0.000, E =      -185.1435316281
  O        -4.5830000000        5.3330000000        1.5600000000
  H        -3.7770000000        5.3310000000        0.9430000000
  H        -5.0810000000        4.5890000000        1.1760000000
  O        -0.0830000000        4.2180000000        0.0700000000
  H        -0.4310000000        3.3970000000        0.6090000000
  H         0.3770000000        3.7560000000       -0.6880000000
  O        -1.4880000000        2.6920000000        4.1250000000
  H        -2.4650000000        2.4330000000        3.9160000000
  H        -1.2680000000        2.1450000000        4.9520000000
  O        -2.4610000000       -2.5480000000       -6.1360000000
  H        -1.8920000000       -2.2410000000       -6.9210000000
  H        -1.9700000000       -3.3210000000       -5.7730000000
  O         4.0320000000        0.1610000000        2.1830000000
  H         4.2720000000       -0.0520000000        1.2320000000
  H         4.0440000000       -0.7600000000        2.6410000000
  O         2.9500000000       -3.4970000000       -1.0060000000
  H         2.5990000000       -3.9010000000       -0.1290000000
  H         3.1930000000       -4.2830000000       -1.5330000000
  O        -2.8900000000       -4.7970000000       -2.7350000000
  H        -2.8100000000       -5.7060000000       -2.2970000000
  H        -2.4370000000       -4.1280000000       -2.0390000000
  O        -0.5530000000        0.9220000000       -3.7310000000
  H        -0.1630000000        1.5520000000       -3.0850000000
  H        -1.3760000000        0.5440000000       -3.4690000000
  O         4.1790000000        4.0170000000        4.2780000000
  H         3.2750000000        3.8320000000        3.8760000000
  H         4.6580000000        4.4920000000        3.5720000000
  O         5.7390000000        1.4250000000        3.9440000000
  H         5.1250000000        2.0660000000        4.3460000000
  H         5.1730000000        1.1810000000        3.0970000000
  O         0.9880000000       -0.7600000000       -5.4450000000
  H         1.6400000000       -1.3720000000       -4.9890000000
  H         0.5460000000       -0.2200000000       -4.7620000000
  O        -0.7480000000        1.9850000000        1.2490000000
  H        -0.0010000000        1.4900000000        1.5400000000
  H        -1.1600000000        2.2550000000        2.1090000000
  O         4.1270000000       -0.2340000000       -3.1490000000
  H         5.0220000000       -0.4360000000       -3.4280000000
  H         3.5400000000       -0.9180000000       -3.6010000000
  O        -2.4730000000        2.7680000000       -1.3950000000
  H        -1.5330000000        2.7190000000       -1.2140000000
  H        -2.7020000000        1.8080000000       -1.4790000000
  O        -0.1240000000       -2.1160000000        2.4040000000
  H         0.6120000000       -2.5930000000        2.0100000000
  H         0.2650000000       -1.4980000000        3.0890000000
  O         0.7280000000        2.8230000000       -2.1900000000
  H         0.6460000000        3.6940000000       -2.6850000000
  H         1.6880000000        2.7050000000       -1.9470000000
  O         4.2560000000       -5.4270000000       -2.6440000000
  H         5.2220000000       -5.0460000000       -2.4790000000
  H         4.1740000000       -5.6280000000       -3.5930000000
  O        -3.1780000000       -0.5080000000       -4.2270000000
  H        -2.7620000000       -1.2210000000       -4.8180000000
  H        -3.6030000000        0.0730000000       -4.9560000000
  O        -1.4490000000        5.3000000000       -4.8050000000
  H        -1.3970000000        4.4700000000       -5.3170000000
  H        -2.1020000000        5.0910000000       -4.0670000000
  O         3.3540000000        2.1920000000       -1.7550000000
  H         3.4070000000        1.4330000000       -2.4050000000
  H         3.9710000000        2.9580000000       -2.1960000000
  O         1.7730000000       -4.0180000000        1.7690000000
  H         1.1210000000       -4.5320000000        1.2010000000
  H         1.9750000000       -4.5290000000        2.6180000000
  O         1.5260000000        1.3840000000        2.7120000000
  H         2.3170000000        1.0700000000        2.2510000000
  H         1.3530000000        0.6570000000        3.3640000000
  O         2.7110000000       -2.3980000000       -4.2530000000
  H         2.2020000000       -3.2570000000       -4.1200000000
  H         3.3050000000       -2.6100000000       -5.0990000000
  O         6.9330000000        0.0930000000       -1.3930000000
  H         6.1600000000       -0.1370000000       -0.7950000000
  H         6.7480000000       -0.3940000000       -2.2290000000
  O        -5.6050000000       -2.5490000000        3.1510000000
  H        -4.7560000000       -2.5030000000        3.6160000000
  H        -5.4730000000       -3.1870000000        2.3780000000
  O         0.8210000000       -4.4060000000        6.5160000000
  H         0.8470000000       -3.6750000000        7.2250000000
  H        -0.0140000000       -4.2400000000        5.9880000000
  O         1.5770000000        3.9330000000        3.7620000000
  H         1.2210000000        2.9750000000        3.6400000000
  H         1.3670000000        4.1260000000        4.6590000000
  O        -2.1110000000       -3.7410000000       -0.2190000000
  H        -1.3780000000       -4.4250000000       -0.0360000000
  H        -1.8250000000       -2.7750000000        0.0030000000
  O         0.9260000000       -1.9610000000       -2.0630000000
  H         0.1490000000       -1.8210000000       -1.4020000000
  H         1.7250000000       -2.3030000000       -1.5360000000
  O         4.5310000000       -1.0300000000       -0.5470000000
  H         4.2900000000       -1.9800000000       -0.5810000000
  H         4.2920000000       -0.5970000000       -1.3900000000
  O        -0.7400000000       -1.2620000000       -0.0290000000
  H        -1.2720000000       -0.4220000000       -0.0990000000
  H        -0.4030000000       -1.3490000000        0.8730000000
  O         3.6550000000        3.0210000000        0.9880000000
  H         2.7060000000        3.0530000000        1.2820000000
  H         3.5420000000        2.6150000000        0.0200000000
      96
 i =      100, time =       50.000, E =      -185.1478459566
  O        -4.7084662321        5.1194418257        1.9364966486
  H        -4.0374803200        5.2592036992        1.3636365835
  H        -5.0986858968        4.2738250104        1.6826369624
  O        -0.0279334553        4.4287543373        0.0489516382
  H        -0.3481542079        3.6021382592        0.4886822140
  H         0.4095102624        4.0468686204       -0.7848642673
  O        -1.1648619381        2.4519531503        3.8828947948
  H        -2.1199893537        2.3803732413        3.8621501255
  H        -0.7781793706        1.9388316366        4.6659943218
  O        -2.8192580156       -2.4029375221       -6.1624111900
  H        -2.0155672983       -2.2373501629       -6.6578544700
  H        -2.5009664189       -3.1321186462       -5.6494096006
  O         4.0880624455        0.1344575041        2.3944436930
  H         4.3796465563       -0.0126390076        1.4908761142
  H         4.1683542911       -0.7210388997        2.8770238975
  O         3.1911669034       -3.4316787990       -0.6343730711
  H         2.8250958415       -3.6972275644        0.1988025850
  H         3.2348733093       -4.2161037320       -1.1724607371
  O        -3.0819410764       -4.4142940920       -2.4853780083
  H        -2.6958534352       -5.3442029976       -2.3798945877
  H        -3.1614067331       -4.0304217299       -1.5131275360
  O        -0.5190924328        0.8875706778       -3.7712480897
  H        -0.2582097627        1.7207721398       -3.3193121846
  H        -1.3474554188        0.5487921937       -3.3710561425
  O         4.2782789181        4.0673847745        4.3320627731
  H         3.3306473884        4.0972606084        4.3390098794
  H         4.4244285047        4.6037154988        3.5331070528
  O         5.8658394294        1.7132165442        4.0071872111
  H         5.1563760603        2.3678142693        4.0162467535
  H         5.3618955721        0.9649637332        3.4295542068
  O         1.1389587206       -0.5290432531       -5.2847853959
  H         1.9934422265       -0.6751363465       -4.8540563052
  H         0.6081113004       -0.1400589497       -4.6406366330
  O        -0.9352007210        1.9095519946        1.0444703597
  H        -0.1688106240        1.4003191180        0.6991617928
  H        -0.9903781511        1.6956728432        1.9638732740
  O         3.9708136586       -0.2204133616       -3.2715746391
  H         4.7358310311       -0.3476759993       -3.8370873121
  H         3.3918155589       -0.9775172345       -3.4881584588
  O        -2.5451311929        2.7198068396       -1.4329951772
  H        -2.3299538897        2.7163654699       -0.5108907725
  H        -3.2281678320        2.0754702502       -1.5443537144
  O        -0.2720777888       -2.1883567328        2.5187945042
  H         0.3686245974       -2.7104749726        2.0283509304
  H         0.2529941035       -1.5137999564        2.9175052421
  O         0.7569962360        2.7506708663       -2.2641862996
  H         1.0852353471        3.5691825622       -2.6920172165
  H         1.5129478557        2.2928567936       -1.8667191760
  O         4.2214515337       -5.2210717412       -2.5910594841
  H         5.2175167060       -4.9236373414       -2.6168543200
  H         4.0094884291       -5.2799618637       -3.5249010999
  O        -3.1128664722       -0.5072435990       -4.2673938067
  H        -2.9719624059       -1.1547275253       -5.0342198262
  H        -3.0426468662        0.3716530736       -4.5849305993
  O        -1.2812422637        5.1684715905       -4.7792595913
  H        -1.5148548196        4.3085809489       -5.0416597796
  H        -1.8791354869        5.4657484873       -4.0513371799
  O         3.3124821064        1.9284611710       -1.6025297675
  H         3.5679246622        1.2459717101       -2.2008435294
  H         3.7762919853        2.7831710333       -2.0526943317
  O         1.7948273789       -3.9378751602        1.5555593005
  H         1.2983923110       -4.4875867074        0.8984885075
  H         1.8122848896       -4.4378797891        2.4130902241
  O         1.5244243108        1.5208567389        2.5236060750
  H         2.3187779463        1.0236734307        2.6455664004
  H         0.8743950163        0.9487085565        2.8553596197
  O         2.8599175348       -2.6463029654       -4.1321688621
  H         2.6057536280       -3.5263494432       -3.7100464080
  H         3.2580310650       -2.8143275642       -4.9863359065
  O         6.8652239044       -0.1057539290       -1.4697337464
  H         6.1106539533       -0.5278243234       -1.0004987780
  H         6.6402013646       -0.2469976702       -2.4063436195
  O        -5.8165141336       -2.4255036911        3.0347556097
  H        -5.0051628242       -2.8034864740        2.8063766801
  H        -6.5161563942       -2.8881719264        2.6961785048
  O         1.0685943928       -4.5683237619        6.4723253253
  H         1.0845683393       -3.6762263012        6.9177168573
  H         0.2157660005       -4.6572534262        6.0394927823
  O         1.2747207969        4.0442669193        3.5471757411
  H         1.1856644995        3.0925265133        3.2224642200
  H         0.3069243682        4.2528205304        3.6389424688
  O        -2.1267517418       -3.6370059846       -0.4062083332
  H        -1.4799816769       -4.4030937779       -0.3299922858
  H        -1.6758765369       -2.7026983712       -0.5131420837
  O         1.1562065251       -2.0222467353       -2.0701946936
  H         0.5665979363       -1.9097589913       -1.2765175714
  H         2.0593749035       -2.1845797561       -1.7964465250
  O         4.4425905743       -1.1620323341       -0.4706777097
  H         4.3161301854       -2.1275000935       -0.5318606373
  H         3.9050564435       -0.7439411443       -1.1559031642
  O        -0.7915393938       -1.2916156823       -0.1239628981
  H        -1.5685530471       -0.8106598290       -0.3379075569
  H        -0.8021766881       -1.6607942849        0.7713499131
  O         3.5880831902        2.8813355498        1.0565994136
  H         2.7925754248        2.5707794723        1.4622550239
  H         3.5793597300        2.4869238693        0.1389466185
      96
 i =      200, time =      100.000, E =      -185.1750077129
  O        -4.6568872358        4.8585059789        1.8718308259
  H        -3.9075468621        5.1976954431        1.2322698583
  H        -4.9886247505        4.0275731458        1.6214547400
  O         0.1464432740        4.2484126029       -0.0004904619
  H         0.0829964226        3.5947926261        0.6646397810
  H         0.3433655536        3.6560968924       -0.8143467166
  O        -0.9727265971        2.2992662725        3.4954636169
  H        -1.8625786203        2.0979550223        3.3379408506
  H        -0.6136734505        1.7760443282        4.2404480489
  O        -3.2146823679       -2.5474232585       -6.1848996986
  H        -2.4094979248       -2.5472914634       -6.6183513842
  H        -3.2118895273       -3.4820193489       -5.8793917080
  O         3.9741537708        0.3537477251        2.4270510935
  H         4.3995728641        0.2009645311        1.5715765248
  H         3.9676363096       -0.4568400386        2.9172869726
  O         3.4947867408       -3.4940633195       -0.5188856068
  H         3.2520266363       -4.0693037027        0.1791734266
  H         3.5080866829       -4.0416956003       -1.2948009347
  O        -3.0581095106       -4.3153611020       -2.7312842138
  H        -2.8219481908       -5.1820269231       -2.2044884090
  H        -3.0229798843       -3.6327162077       -2.0558086462
  O        -0.6157251043        0.8488442462       -3.5138303541
  H        -0.2802738228        1.2790202818       -2.7263164540
  H        -1.2698075869        0.2055304063       -3.1806934719
  O         4.1735354194        4.1231988038        4.3892795565
  H         3.4980479194        3.9489780454        3.6884049775
  H         4.7885881611        4.4746121785        3.7687722242
  O         5.9374331659        2.1355761517        3.8464604315
  H         5.5941821758        2.6011670714        4.6332827854
  H         5.1139394193        1.9152052199        3.3504402860
  O         1.3726312064       -0.4779098259       -5.3492851013
  H         2.0158364859       -1.1556984987       -5.2966004984
  H         1.2272682772       -0.2800521763       -4.4045932715
  O        -1.0315941022        1.8714210496        0.7955713064
  H        -0.3895905786        1.1983378410        0.6165209600
  H        -0.8335436614        2.1703445001        1.7237673584
  O         3.6875272212       -0.3454731501       -3.2066583526
  H         4.5151582627       -0.2672996503       -3.7395444433
  H         3.3526988825       -1.1698472528       -3.4934566197
  O        -2.5641231674        2.8205499978       -1.2154124944
  H        -1.8157600139        2.8760976097       -0.5601874222
  H        -2.3878512913        2.0854642666       -1.8562058925
  O        -0.3231478369       -2.0813761247        2.6461983926
  H         0.4828905193       -2.5781618541        2.3263862522
  H         0.0242087700       -1.5974685143        3.3845227599
  O         0.7869424534        2.5919035666       -1.8993804543
  H         0.8627331608        3.2347770480       -2.5851244587
  H         1.7185221215        2.4660776713       -1.6283893328
  O         3.7020298654       -5.3494707809       -2.4377204810
  H         4.4963855184       -5.1073060023       -3.0241337209
  H         2.9996001229       -5.1880530352       -3.1259168812
  O        -3.1208918086       -0.3372518830       -4.2324631387
  H        -3.1721276707       -1.0553620844       -4.8782147714
  H        -2.9956300404        0.5035524326       -4.6656772955
  O        -1.3457137737        4.9069482822       -4.7334791432
  H        -1.3691877639        3.9061759837       -4.7616984170
  H        -1.7041770299        5.1864009701       -3.8978284330
  O         3.3472063771        1.7158578827       -1.4380137426
  H         3.5425797932        0.9869825394       -2.0574385267
  H         3.9601872066        2.4738839451       -1.7370967448
  O         1.6983512852       -3.6592421300        1.4939388493
  H         1.2321880113       -4.0508322851        0.7591993481
  H         1.5887199005       -4.2638406875        2.2615222826
  O         1.4901188937        1.3364494325        2.1588083390
  H         2.2782554000        0.8105112445        2.1286129337
  H         1.0014689728        0.7640144031        2.8176603520
  O         3.2900952543       -2.9118587652       -4.0471967872
  H         2.5555414693       -3.3316396286       -3.6975758824
  H         3.5201781011       -3.2852056728       -4.9043021505
  O         6.6830350638       -0.2339016728       -1.5028737542
  H         5.8760871562       -0.5015422648       -1.0471278540
  H         6.5429202971       -0.4111163024       -2.4267011819
  O        -6.0459556523       -2.3325726171        2.8501756953
  H        -5.0813895934       -2.4667629773        2.7651053480
  H        -6.4935114651       -2.9991802126        2.2481944609
  O         1.2573061563       -4.5315386800        6.2898332131
  H         1.0719690165       -3.6839277353        6.8423303394
  H         0.6174791528       -4.4956646181        5.5606510418
  O         0.9722087129        4.1550805842        3.4282356902
  H         0.8146151560        3.3070227270        2.9885251579
  H         0.0778591129        4.5169882253        3.5191814935
  O        -2.1573979310       -3.4365864990        0.0764723071
  H        -1.3757105609       -3.9856471245        0.2878141094
  H        -1.8854463371       -2.5057741443        0.1717701896
  O         1.2932462399       -2.0884408463       -2.0842874379
  H         0.8324720693       -1.5102260367       -1.5589935433
  H         1.9545976358       -2.4874259286       -1.5257727704
  O         4.4666972109       -0.8983754377       -0.1827653333
  H         4.3119393067       -1.8370028104       -0.0982190226
  H         3.7824552542       -0.6022604415       -0.8070890235
  O        -0.6853853182       -1.0495172472       -0.1673253911
  H        -1.5010770954       -0.7072620054       -0.5693910569
  H        -0.6825883934       -0.9889147679        0.8056529974
  O         3.4352220925        2.8278216481        1.0411775714
  H         2.6117349799        2.4733462019        1.4446588884
  H         3.5860399747        2.3888401895        0.2484638903
      96
 i =      300, time =      150.000, E =      -185.1832217924
  O        -4.4298995644        4.9514136172        1.7431069854
  H        -3.7201153162        5.4277364126        1.3051630968
  H        -4.9234765734        4.3098159781        1.1723607444
  O         0.1129365748        4.2320538939        0.0982428947
  H        -0.5313857455        3.6255530199        0.5548676313
  H         0.3139549816        3.7487812075       -0.7285988347
  O        -0.6550001905        1.9890003476        3.5052303421
  H        -1.6066208333        2.1003888978        3.2663029843
  H        -0.7317270530        1.4702768943        4.2897725748
  O        -3.3649675158       -2.6668597284       -6.0616632375
  H        -2.4867627534       -3.0292347765       -6.4234846040
  H        -3.6065669270       -3.3184988576       -5.4180601631
  O         4.0645738390        0.6983774711        2.5589912830
  H         4.3426138642        0.4823767510        1.6469729697
  H         3.9469925664       -0.1478822976        2.8686323387
  O         3.8950320468       -3.3986654477       -0.5925982686
  H         3.1880707124       -3.6457909638        0.0564679253
  H         4.1381799178       -4.2105483191       -1.1054665171
  O        -3.1380215095       -4.2636197108       -2.7322136745
  H        -3.1496473965       -5.1419921671       -2.2168913375
  H        -3.2953315188       -3.6205634780       -1.9944536932
  O        -0.6790259602        0.7495280000       -3.4465698176
  H        -0.3846649386        1.3083551319       -2.7128392250
  H        -1.4512438630        0.3572991406       -3.0476787688
  O         3.9007423100        4.2262429609        4.1410472567
  H         2.9555458653        4.1443906883        4.2042761525
  H         4.0110409714        4.7249970285        3.2740885958
  O         5.8517430365        2.3497036361        3.7257315349
  H         5.1758213086        3.0571780983        3.7649166020
  H         5.4604717166        1.7089979924        3.1833244511
  O         1.6741778575       -0.6432245889       -5.2975723664
  H         2.3000046471       -1.4697391594       -5.4329668598
  H         1.6316121562       -0.5747365322       -4.3173068552
  O        -0.9152382497        1.7814987594        0.5648059428
  H        -0.1177572084        1.6627136317       -0.0312801308
  H        -0.4972186087        1.7680482621        1.4398602640
  O         3.4434923461       -0.5120943753       -3.1431347720
  H         4.1853514712       -0.4140945334       -3.7577099194
  H         3.3631176572       -1.4374647744       -2.9916531322
  O        -2.5843247935        2.9937651848       -1.1316233518
  H        -2.6076419427        3.1370466039       -0.1677663851
  H        -2.7014447877        2.0245415590       -1.2204390753
  O        -0.6567863831       -1.9317346318        2.4913256331
  H        -0.1985716007       -2.6427234974        2.0178547806
  H        -0.0904621913       -1.6564771505        3.3054190827
  O         1.0019124163        2.2604831898       -1.6539095497
  H         1.2032924544        2.6692225806       -2.5354762231
  H         1.8664748282        1.8005989655       -1.4729188068
  O         3.4939425334       -5.6050983173       -2.3446294507
  H         4.0317910727       -5.2639488982       -3.0895242458
  H         2.7828308756       -4.9393271563       -2.4223787086
  O        -3.4010870499       -0.3778917887       -4.6229267105
  H        -3.2685844201       -1.0808271078       -5.2596076860
  H        -3.3690412718        0.5330304861       -5.0443049703
  O        -1.4011362745        4.6095387161       -4.7694978500
  H        -1.9526873967        3.8505194551       -4.8601634729
  H        -1.7015926075        4.9257095560       -3.8766683972
  O         3.3381222596        1.2450177727       -1.2481712191
  H         3.4568999369        0.6216928596       -2.0068229867
  H         3.6651723510        2.1143996558       -1.5649683419
  O         1.4652557968       -3.2847957102        1.3510398299
  H         0.8722200390       -3.7310232391        0.7553578618
  H         1.3636907721       -3.9350471098        2.0747318707
  O         1.2611381672        1.1416491561        1.7670101108
  H         2.2029561695        1.2752928086        2.0340282137
  H         0.8670301570        0.8209246760        2.5854544322
  O         3.7901934339       -3.0272923155       -3.8466029661
  H         2.9503169433       -3.5465704426       -3.9817608282
  H         4.0276339414       -2.4628881347       -4.6060467549
  O         6.5365092642       -0.0148811327       -1.5359391171
  H         5.9135479009       -0.2613326979       -0.8514371748
  H         6.2276100145       -0.4115744913       -2.3755580386
  O        -5.9528614499       -2.0225801357        2.7297754058
  H        -5.1176954088       -2.4599055855        2.3651857298
  H        -6.7229052789       -2.2591550449        2.0812586749
  O         0.9699317678       -4.6960030689        6.0635540037
  H         0.9943437809       -3.7786515658        6.3048261948
  H         0.1003458397       -4.8575015936        5.5781166900
  O         1.0381570887        4.2393034107        3.3326169530
  H         0.7472792088        3.3553909235        3.1390809290
  H         0.2600336720        4.6712861160        3.6613480643
  O        -2.2334709423       -3.4210408972        0.5578874744
  H        -1.7970307835       -3.7945905042       -0.1825448594
  H        -1.7416858860       -2.6107428443        0.6387377573
  O         1.4875884185       -2.1865243170       -1.8349932650
  H         0.7429217077       -1.7238438489       -1.3403340064
  H         2.0782769206       -2.4945662324       -1.1309010858
  O         4.3725087939       -0.6386353517        0.2417069422
  H         4.1850043583       -1.5497966600        0.0392051557
  H         3.7084990639       -0.1622886991       -0.2590240054
  O        -0.1853042693       -0.8564864269       -0.0797697005
  H        -0.8284538701       -0.2202021302       -0.4903361532
  H        -0.0168814225       -0.5515616126        0.8224423779
  O         3.2680385025        2.8745739076        0.9787821838
  H         2.4757992463        3.3194539121        0.8081610651
  H         3.2469775816        2.0099979960        0.5312840765
      96
 i =      400, time =      200.000, E =      -185.1885719396
  O        -4.4601968003        4.9829039287        1.6025400641
  H        -3.7641784929        5.4139558938        1.1710208612
  H        -4.7132656729        4.1362133464        1.1752373712
  O         0.0542503045        4.2641920941        0.0432773101
  H        -0.4547732610        3.6034134755        0.5198825226
  H         0.1778484775        3.8973040696       -0.8224562439
  O        -0.4696353903        1.7720053782        3.5821182665
  H        -1.3823082371        1.6279035051        3.7581241201
  H        -0.1864301989        1.5847507757        4.4527688487
  O        -3.1491014350       -2.8792101903       -5.6744401627
  H        -2.2163715133       -2.5817509935       -5.8933685899
  H        -3.3115883977       -3.7684723960       -6.1139696928
  O         4.0778452401        0.9453623120        2.7809331746
  H         4.3259462448        0.1298487132        2.4036739769
  H         3.4909140649        0.5670044730        3.5246941096
  O         4.1261568290       -3.1666421787       -0.6642145857
  H         4.2516246047       -3.7047580084        0.1201735565
  H         3.8692532082       -3.8100597159       -1.4124208286
  O        -3.2937384703       -4.1467545861       -2.6205252806
  H        -2.8892668003       -4.8575702766       -2.0998267420
  H        -3.5632234237       -3.6302999268       -1.8516410859
  O        -0.7111604380        0.5192983509       -3.3253397878
  H        -0.1681266909        0.5670307496       -2.5193793762
  H        -1.5425330399        0.1795330564       -2.9437862946
  O         3.5206799892        4.0820307801        3.8340978548
  H         2.5897261941        4.2251826320        3.6722086009
  H         3.9871285182        4.3291445981        2.9924768922
  O         6.0376249595        2.6853148527        3.6356924196
  H         5.7790649019        2.5553461043        4.5180190250
  H         5.3637871237        2.4430252554        3.1142430626
  O         1.3828770197       -0.6667199713       -5.2615586922
  H         2.0997521384       -1.3707395495       -5.4582567390
  H         1.5134928204       -0.4973403223       -4.3235561551
  O        -1.0001250883        1.6964451697        0.3425354722
  H        -0.3205453327        1.6144547029       -0.3148221071
  H        -0.6003829306        1.2960113589        1.1173486751
  O         3.3053365175       -0.5211221568       -3.2175984305
  H         4.1163772808       -0.6761176443       -3.6371159958
  H         2.9275733244       -1.4071061934       -3.0345177572
  O        -2.9163479696        3.0393421421       -0.9491731157
  H        -2.5925750760        2.9934233289       -0.0526183895
  H        -2.4698229223        2.3063517519       -1.3233440716
  O        -0.8878606757       -1.6413794666        2.4256317755
  H        -0.1262989835       -1.9648726866        1.9471984830
  H        -0.5216395718       -0.9855952907        3.0238365933
  O         0.9373605615        1.9475655623       -1.5146870302
  H         1.1440077804        2.7343537448       -2.0349073286
  H         1.8552552537        1.6050586528       -1.4627373429
  O         3.5018948843       -5.6285811661       -2.3643901963
  H         4.1876093738       -5.4275711583       -2.9755190771
  H         2.7679007472       -5.3233060315       -2.8508753026
  O        -3.7352345671       -0.2508131453       -4.5637456492
  H        -3.9529226535       -1.1654426261       -4.9079482454
  H        -3.4691496535        0.2065512265       -5.2910639763
  O        -1.6004317400        4.4851743799       -4.8327140875
  H        -1.8598609252        3.7512563266       -5.4186365537
  H        -2.4935922655        4.7649261417       -4.4962983929
  O         3.4323428778        0.9663078350       -1.0886094700
  H         3.4417952630        0.3662050205       -1.8857000068
  H         3.9982106419        1.6643843832       -1.2768578951
  O         1.5086366968       -2.8447132684        1.0193981264
  H         1.0179654735       -3.0663241040        0.1717442977
  H         1.1827830999       -3.5742222734        1.5084465413
  O         1.4118329177        0.6785257799        1.7263832396
  H         2.3938684300        0.7429135583        1.8633345404
  H         0.9666380837        0.6621061556        2.5557728674
  O         3.9593989348       -2.9941692747       -3.6604517200
  H         3.7185896500       -3.5019872241       -4.5003463504
  H         4.8565110100       -3.3405672542       -3.4879829099
  O         6.3112345942        0.2784306883       -1.7247888407
  H         5.9564998220        0.1716183492       -0.8210811276
  H         5.6731376145       -0.0537322909       -2.3403382740