17
Lattice="7.0 0.0 0.0 3.5 6.06217782649107 0.0 0.0 0.0 15.0" Properties=species:S:1:pos:R:3:initial_charges:R:1:forces:R:3:charge:R:1 energy=-1245.2384207997836 free_energy=-1245.2384207997836 dipole="-2.5539520721367874 -2.0078748797694463 -5.114623834377681" stress="0.009461107421213068 0.0008703038214978713 0.00011793854399089218 0.0008703038214978713 0.0071193642518298066 -0.0002158412848049144 0.00011793854399089218 -0.0002158412848049144 0.0016951606552726827" pbc="T T F"
N        1.74350721       0.93567690       3.80080308      -0.15000000      -0.01724963       0.00658637      -0.00085437      -0.13330114
N        2.89179831      -1.05817633       3.46565020      -0.50000000      -0.00105442      -0.00090155      -0.00221794      -0.25949105
N        4.09000504       0.98928458       3.55911970      -0.66000000      -0.00737661      -0.00014426       0.01446046      -0.26963885
N        0.53148394      -0.99568169       3.36683848      -0.66000000       0.01319263      -0.00518688      -0.00177751      -0.28055710
N       -0.48329166       0.76686953       4.57715322      -0.66000000      -0.01717570      -0.00090648      -0.00623549      -0.24210540
N        2.90382506       2.93393811       3.91718520      -0.66000000       0.00374778      -0.00034163      -0.01215790      -0.19376947
N        0.58364652       2.87836903       4.41545618      -0.66000000       0.01307267       0.01011172       0.01201373      -0.21408522
N       -1.78811043      -1.09329200       3.83963330      -0.85000000       0.00012375      -0.00705253      -0.00072692      -0.05399561
C        1.74120497      -0.41109564       3.53309952       0.55000000       0.00271759       0.01152425       0.00919792       0.24641548
C        2.94028807       1.62797240       3.78116050       0.71000000       0.00148895      -0.00407515       0.01818354       0.27838821
C        0.61218366       1.56290929       4.32594430       0.71000000      -0.01861460       0.00668612       0.01406734       0.21633909
C        4.03880493      -0.38604253       3.65119026       0.55000000       0.00147175       0.00357842      -0.00881779       0.21272867
C       -0.52158836      -0.39542707       3.93577152       0.71000000       0.00496542       0.00846510      -0.02757705       0.24488818
C        1.69141205       3.56218645       4.02460905       0.87000000       0.01238578       0.00304731       0.00985282       0.16001723
Pt       4.98778612       2.81957310       4.82597066       0.00000000      -0.00872953      -0.01706654       0.00928044      -0.36937138
O        5.30573726       4.06671682       6.46584331       0.00000000       0.00920102      -0.01094081      -0.00937499      -0.58450401
H        6.25291248       4.19155879       6.35129786       0.00000000       0.00783315      -0.00338345      -0.01731629       0.24204238
