15
Lattice="7.0 0.0 0.0 3.5 6.06217782649107 0.0 0.0 0.0 15.0" Properties=species:S:1:pos:R:3:initial_charges:R:1:forces:R:3:charge:R:1 energy=-1120.1255644727692 free_energy=-1120.1255644727692 dipole="-2.870151863725026 -1.7333436863351448 -3.718506441044527" stress="0.005190698584066899 -0.0001240255747048499 0.00045923848709255964 -0.0001240255747048499 0.009021760561751638 3.082271815041571e-05 0.00045923848709255964 3.082271815041571e-05 0.002061275467144234" pbc="T T F"
N        1.79595270       1.00977126       4.11648256      -0.15000000      -0.00992333      -0.00093008      -0.00010202      -0.14102686
N        2.91066822      -1.01675245       3.83850893      -0.50000000       0.00977974       0.00071777       0.01072680      -0.19822792
N        4.04774138       1.03338271       3.50523781      -0.66000000      -0.00839720       0.00547669       0.00332255      -0.17623311
N        0.63828992      -1.01530236       4.26553278      -0.66000000      -0.00292443      -0.00570677       0.00598711      -0.25606575
N       -0.50910976       1.05143148       4.50730371      -0.66000000      -0.00740968      -0.00878466       0.00187675      -0.21826456
N        2.75428381       3.02728992       3.36782705      -0.66000000      -0.00348676      -0.00129449      -0.00719034      -0.25923544
N        0.80681653       3.04528457       4.70669997      -0.66000000       0.00039220      -0.00369448      -0.00214492      -0.29606648
N       -1.71754364      -0.95514768       4.05234825      -0.85000000       0.01147421       0.00613551      -0.00670049      -0.05113472
C        1.77950640      -0.38257081       4.06599190       0.55000000       0.00548157       0.00242915       0.00588869       0.25777074
C        2.89499733       1.68018691       3.63014216       0.71000000       0.00212147       0.00699286      -0.00074653       0.21782028
C        0.65796765       1.69762233       4.46813827       0.71000000      -0.00153598       0.00550681      -0.00243481       0.23142358
C        4.08241608      -0.28284882       3.81306489       0.55000000      -0.00165566      -0.00531107      -0.00516433       0.17365890
C       -0.52106970      -0.26982987       4.26136549       0.71000000      -0.00006875       0.00046598       0.00344209       0.18795002
C        1.78550703       3.64957421       4.03779307       0.87000000       0.00987936       0.00041113      -0.00177156       0.24026674
Pt       5.37172706       3.00774944       3.36676316       0.00000000      -0.00372676      -0.00241435      -0.00498899      -0.71263541
